[Molden Format]
[Title]
Written by TeraChem
[Atoms] Angs
O   1   8     -4.47980   -2.84000    4.24560
H   2   1     -4.85250   -3.76490    4.39510
H   3   1     -3.60500   -2.75680    4.92640
[GTO]
    1 0
 s    6 1.00
         5484.671700             0.001831
          825.234950             0.013950
          188.046960             0.068445
           52.964500             0.232714
           16.897570             0.470193
            5.799635             0.358521
 s    3 1.00
           15.539616            -0.110778
            3.599934            -0.148026
            1.013762             1.130767
 s    1 1.00
            0.270006             1.000000
 p    3 1.00
           15.539616             0.070874
            3.599934             0.339753
            1.013762             0.727159
 p    1 1.00
            0.270006             1.000000

    2 0
 s    3 1.00
           18.731137             0.033495
            2.825394             0.234727
            0.640122             0.813757
 s    1 1.00
            0.161278             1.000000

    3 0
 s    3 1.00
           18.731137             0.033495
            2.825394             0.234727
            0.640122             0.813757
 s    1 1.00
            0.161278             1.000000

[MO]
 Ene=   -19.2210
 Spin= Alpha
 Occup= 2.0
    1   -0.99508
    2   -0.02745
    3    0.01220
    4   -0.00060
    5    0.00152
    6   -0.00124
    7    0.00069
    8   -0.00193
    9    0.00153
   10   -0.00022
   11   -0.00303
   12   -0.00044
   13   -0.00224
 Ene=    -1.0558
 Spin= Alpha
 Occup= 2.0
    1    0.21216
    2   -0.46786
    3   -0.48007
    4   -0.02786
    5    0.10472
    6   -0.07475
    7   -0.02111
    8    0.05130
    9   -0.04277
   10   -0.14582
   11   -0.00782
   12   -0.10784
   13   -0.01076
 Ene=    -0.5607
 Spin= Alpha
 Occup= 2.0
    1    0.01157
    2   -0.02109
    3   -0.05649
    4   -0.35897
    5   -0.32850
    6   -0.13388
    7   -0.18716
    8   -0.16224
    9   -0.07427
   10    0.25642
   11    0.16053
   12   -0.24042
   13   -0.17292
 Ene=    -0.4188
 Spin= Alpha
 Occup= 2.0
    1    0.08509
    2   -0.19163
    3   -0.34573
    4    0.19355
    5   -0.36781
    6    0.34152
    7    0.13856
    8   -0.25463
    9    0.24019
   10    0.14035
   11    0.11416
   12    0.15463
   13    0.14294
 Ene=    -0.3558
 Spin= Alpha
 Occup= 2.0
    1    0.00000
    2   -0.00000
    3   -0.00000
    4    0.38570
    5   -0.23098
    6   -0.46736
    7    0.29890
    8   -0.17900
    9   -0.36218
   10    0.00001
   11    0.00001
   12   -0.00000
   13   -0.00002
 Ene=     0.0767
 Spin= Alpha
 Occup= 0.0
    1    0.08327
    2   -0.14593
    3   -0.89925
    4   -0.18118
    5    0.15903
    6   -0.22812
    7   -0.24427
    8    0.23414
    9   -0.31730
   10    0.08573
   11    0.68884
   12    0.15555
   13    0.97594
 Ene=     0.1683
 Spin= Alpha
 Occup= 0.0
    1    0.01871
    2   -0.02863
    3   -0.28777
    4    0.29156
    5    0.29536
    6    0.09466
    7    0.47892
    8    0.50164
    9    0.14734
   10    0.11362
   11    1.32214
   12   -0.11126
   13   -0.87196
 Ene=     0.8193
 Spin= Alpha
 Occup= 0.0
    1    0.02294
    2   -0.17717
    3    0.35426
    4   -0.27703
    5    0.09431
    6   -0.27522
    7    0.07116
    8   -0.14490
    9    0.13033
   10   -0.15439
   11    0.21420
   12    1.21882
   13   -1.21266
 Ene=     0.8828
 Spin= Alpha
 Occup= 0.0
    1   -0.03380
    2    0.18366
    3   -0.23654
    4    0.01044
    5   -0.41351
    6    0.21300
    7   -0.18604
    8   -0.00839
    9   -0.14943
   10   -1.27255
   11    1.01474
   12    0.00551
   13   -0.04404
 Ene=     0.9593
 Spin= Alpha
 Occup= 0.0
    1    0.00000
    2   -0.00001
    3   -0.00000
    4   -0.56908
    5    0.34077
    6    0.68959
    7    0.61911
    8   -0.37067
    9   -0.75019
   10    0.00006
   11   -0.00001
   12    0.00000
   13   -0.00001
 Ene=     1.0227
 Spin= Alpha
 Occup= 0.0
    1    0.06235
    2   -0.45612
    3    0.22822
    4    0.21641
    5   -0.59195
    6    0.47108
    7   -0.24618
    8    0.90099
    9   -0.64836
   10    0.44581
   11    0.00028
   12    0.38413
   13   -0.16287
 Ene=     1.1314
 Spin= Alpha
 Occup= 0.0
    1    0.00510
    2   -0.07612
    3    0.16362
    4    0.70896
    5    0.55060
    6    0.31300
    7   -1.19827
    8   -0.96055
    9   -0.51420
   10   -0.12193
   11   -0.71335
   12    0.27097
   13    0.53863
 Ene=     1.4689
 Spin= Alpha
 Occup= 0.0
    1   -0.06268
    2    1.62890
    3   -2.45115
    4    0.09290
    5   -0.15715
    6    0.15432
    7   -0.22514
    8    0.60504
    9   -0.48478
   10    0.43207
   11    0.60422
   12    0.44301
   13    0.39686
