[Molden Format]
[Title]
Written by TeraChem
[Atoms] Angs
O   1   8     -4.47980   -2.84000    4.24560
H   2   1     -4.85250   -3.76490    4.39510
H   3   1     -3.60500   -2.75680    4.92640
[GTO]
    1 0
 s    6 1.00
         5484.671700             0.001831
          825.234950             0.013950
          188.046960             0.068445
           52.964500             0.232714
           16.897570             0.470193
            5.799635             0.358521
 s    3 1.00
           15.539616            -0.110778
            3.599934            -0.148026
            1.013762             1.130767
 s    1 1.00
            0.270006             1.000000
 p    3 1.00
           15.539616             0.070874
            3.599934             0.339753
            1.013762             0.727159
 p    1 1.00
            0.270006             1.000000

    2 0
 s    3 1.00
           18.731137             0.033495
            2.825394             0.234727
            0.640122             0.813757
 s    1 1.00
            0.161278             1.000000

    3 0
 s    3 1.00
           18.731137             0.033495
            2.825394             0.234727
            0.640122             0.813757
 s    1 1.00
            0.161278             1.000000

[MO]
 Ene=   -19.1922
 Spin= Alpha
 Occup= 2.0
    1   -0.99508
    2   -0.02745
    3    0.01220
    4   -0.00058
    5    0.00152
    6   -0.00121
    7    0.00068
    8   -0.00193
    9    0.00151
   10   -0.00022
   11   -0.00303
   12   -0.00044
   13   -0.00222
 Ene=    -1.0286
 Spin= Alpha
 Occup= 2.0
    1    0.21227
    2   -0.46641
    3   -0.48327
    4   -0.02702
    5    0.10517
    6   -0.07268
    7   -0.02242
    8    0.05111
    9   -0.04161
   10   -0.14699
   11   -0.01079
   12   -0.10417
   13   -0.00647
 Ene=    -0.5317
 Spin= Alpha
 Occup= 2.0
    1    0.01597
    2   -0.02829
    3   -0.08413
    4   -0.35932
    5   -0.33275
    6   -0.12982
    7   -0.19548
    8   -0.16651
    9   -0.07576
   10    0.26044
   11    0.16711
   12   -0.23038
   13   -0.14785
 Ene=    -0.3927
 Spin= Alpha
 Occup= 2.0
    1    0.08303
    2   -0.18757
    3   -0.33236
    4    0.20615
    5   -0.35822
    6    0.34790
    7    0.15459
    8   -0.25035
    9    0.25051
   10    0.13455
   11    0.11660
   12    0.15400
   13    0.12155
 Ene=    -0.3304
 Spin= Alpha
 Occup= 2.0
    1   -0.00070
    2    0.00225
    3    0.00184
    4   -0.38203
    5    0.23078
    6    0.46657
    7   -0.29971
    8    0.18064
    9    0.36495
   10   -0.00005
   11   -0.00112
   12    0.00174
   13   -0.00226
 Ene=     0.1140
 Spin= Alpha
 Occup= 0.0
    1    0.08633
    2   -0.15644
    3   -0.93285
    4   -0.11723
    5    0.21316
    6   -0.19776
    7   -0.13021
    8    0.33373
    9   -0.27392
   10    0.09663
   11    0.95008
   12    0.14174
   13    0.76965
 Ene=     0.2035
 Spin= Alpha
 Occup= 0.0
    1    0.00020
    2    0.01565
    3   -0.11600
    4    0.32310
    5    0.25886
    6    0.13622
    7    0.50700
    8    0.44758
    9    0.19824
   10    0.09559
   11    1.15483
   12   -0.15473
   13   -1.03755
 Ene=     0.8630
 Spin= Alpha
 Occup= 0.0
    1   -0.02003
    2    0.15558
    3   -0.34115
    4    0.25952
    5   -0.10814
    6    0.27771
    7   -0.05433
    8    0.17299
    9   -0.14036
   10    0.18488
   11   -0.22704
   12   -1.21476
   13    1.21394
 Ene=     0.9040
 Spin= Alpha
 Occup= 0.0
    1    0.03473
    2   -0.18890
    3    0.23912
    4   -0.01469
    5    0.41428
    6   -0.21965
    7    0.18820
    8    0.01213
    9    0.15193
   10    1.27096
   11   -1.00361
   12    0.01498
   13    0.02482
 Ene=     0.9826
 Spin= Alpha
 Occup= 0.0
    1    0.00019
    2   -0.00584
    3    0.01211
    4   -0.57441
    5    0.34292
    6    0.68671
    7    0.62402
    8   -0.37231
    9   -0.74321
   10   -0.00074
   11   -0.00085
   12    0.00528
   13   -0.01430
 Ene=     1.0453
 Spin= Alpha
 Occup= 0.0
    1   -0.06302
    2    0.46266
    3   -0.24056
    4   -0.21544
    5    0.58700
    6   -0.46968
    7    0.25090
    8   -0.88852
    9    0.64855
   10   -0.43849
   11   -0.00078
   12   -0.41205
   13    0.18799
 Ene=     1.1569
 Spin= Alpha
 Occup= 0.0
    1   -0.00560
    2    0.09039
    3   -0.18044
    4   -0.70870
    5   -0.55681
    6   -0.31299
    7    1.19501
    8    0.97181
    9    0.50994
   10    0.12489
   11    0.72588
   12   -0.24423
   13   -0.56461
 Ene=     1.4965
 Spin= Alpha
 Occup= 0.0
    1   -0.06256
    2    1.62790
    3   -2.45239
    4    0.09942
    5   -0.15157
    6    0.16091
    7   -0.24072
    8    0.59275
    9   -0.49694
   10    0.43252
   11    0.58937
   12    0.44239
   13    0.41918
